MODEL 1
REMARK VINA RESULT:     0.000      0.000      0.000
REMARK INTER + INTRA:          -0.884
REMARK INTER:                   0.000
REMARK INTRA:                  -0.884
REMARK UNBOUND:                -0.884
REMARK SMILES Nc1cc2ncnc(NCc3ccc([N+](=O)[O-])cc3)c2cn1
REMARK SMILES IDX 9 1 8 3 2 4 3 5 22 6 4 7 21 8 5 9 20 10 6 11 7 12 1 13 10 16
REMARK SMILES IDX 11 17 12 18 19 19 13 20 18 21 14 22 15 23 16 24 17 25
REMARK H PARENT 9 2 1 14 1 15
ROOT
ATOM      1  N4  UNL     1     -15.782  33.663  23.297  1.00  0.00    -0.365 N 
ATOM      2  H5  UNL     1     -16.591  34.205  23.003  1.00  0.00    +0.162 HD
ENDROOT
BRANCH   1   3
ATOM      3  C5  UNL     1     -16.215  32.348  23.572  1.00  0.00    +0.139 A 
ATOM      4  C1  UNL     1     -20.240  31.345  23.355  1.00  0.00    +0.125 A 
ATOM      5  C2  UNL     1     -19.302  30.401  23.738  1.00  0.00    +0.075 A 
ATOM      6  N6  UNL     1     -19.912  32.605  23.042  1.00  0.00    -0.239 NA
ATOM      7  C3  UNL     1     -17.961  30.740  23.801  1.00  0.00    +0.081 A 
ATOM      8  C14 UNL     1     -18.601  32.928  23.103  1.00  0.00    +0.127 A 
ATOM      9  N2  UNL     1     -17.068  29.809  24.157  1.00  0.00    -0.236 NA
ATOM     10  C13 UNL     1     -17.585  32.045  23.486  1.00  0.00    +0.061 A 
ATOM     11  C4  UNL     1     -15.785  30.191  24.191  1.00  0.00    +0.224 A 
ATOM     12  N3  UNL     1     -15.314  31.415  23.920  1.00  0.00    -0.219 NA
BRANCH   4  13
ATOM     13  N1  UNL     1     -21.594  31.029  23.316  1.00  0.00    -0.384 N 
ATOM     14  H1  UNL     1     -22.011  31.380  24.174  1.00  0.00    +0.158 HD
ATOM     15  H2  UNL     1     -22.049  31.408  22.493  1.00  0.00    +0.158 HD
ENDBRANCH   4  13
ENDBRANCH   1   3
BRANCH   1  16
ATOM     16  C6  UNL     1     -15.063  34.347  24.369  1.00  0.00    +0.150 C 
BRANCH  16  17
ATOM     17  C7  UNL     1     -15.994  34.701  25.509  1.00  0.00    -0.028 A 
ATOM     18  C8  UNL     1     -17.068  35.579  25.303  1.00  0.00    +0.012 A 
ATOM     19  C12 UNL     1     -15.797  34.147  26.785  1.00  0.00    +0.012 A 
ATOM     20  C9  UNL     1     -17.933  35.906  26.352  1.00  0.00    +0.086 A 
ATOM     21  C11 UNL     1     -16.655  34.466  27.840  1.00  0.00    +0.086 A 
ATOM     22  C10 UNL     1     -17.721  35.346  27.619  1.00  0.00    +0.269 A 
BRANCH  22  23
ATOM     23  N5  UNL     1     -18.627  35.683  28.723  1.00  0.00    +0.062 N 
ATOM     24  O1  UNL     1     -19.604  36.402  28.468  1.00  0.00    -0.258 OA
ATOM     25  O2  UNL     1     -18.367  35.225  29.845  1.00  0.00    -0.258 OA
ENDBRANCH  22  23
ENDBRANCH  16  17
ENDBRANCH   1  16
TORSDOF 5
ENDMDL
