MODEL 1
REMARK VINA RESULT:     0.000      0.000      0.000
REMARK INTER + INTRA:          -1.054
REMARK INTER:                   0.000
REMARK INTRA:                  -1.054
REMARK UNBOUND:                -1.054
REMARK SMILES CN(C)C(=O)CN1CCC(n2cc(-c3cccc(O)c3)c3c(N)ncnc32)CC1
REMARK SMILES IDX 11 1 12 2 13 3 21 4 22 5 24 6 25 7 26 8 27 9 10 10 7 11 8 12
REMARK SMILES IDX 29 13 9 14 28 15 6 16 4 17 2 18 5 19 1 20 3 21 14 22 15 23
REMARK SMILES IDX 20 24 16 25 18 26 17 27 19 28 23 30
REMARK H PARENT 19 29 23 31 23 32
ROOT
ATOM      1  N3  UNL     1     -17.498  38.495  23.819  1.00  0.00    -0.329 N 
ATOM      2  C8  UNL     1     -18.611  38.816  23.078  1.00  0.00    +0.097 A 
ATOM      3  C9  UNL     1     -18.229  39.689  22.076  1.00  0.00    +0.013 A 
ATOM      4  C16 UNL     1     -16.825  39.917  22.223  1.00  0.00    +0.069 A 
ATOM      5  C17 UNL     1     -15.834  40.680  21.580  1.00  0.00    +0.136 A 
ATOM      6  N5  UNL     1     -14.566  40.623  22.031  1.00  0.00    -0.219 NA
ATOM      7  C18 UNL     1     -14.299  39.833  23.088  1.00  0.00    +0.226 A 
ATOM      8  N6  UNL     1     -15.153  39.074  23.789  1.00  0.00    -0.218 NA
ATOM      9  C19 UNL     1     -16.406  39.156  23.310  1.00  0.00    +0.146 A 
ENDROOT
BRANCH   1  10
ATOM     10  C7  UNL     1     -17.475  37.586  24.963  1.00  0.00    +0.091 C 
ATOM     11  N2  UNL     1     -18.113  35.651  26.904  1.00  0.00    -0.294 NA
ATOM     12  C5  UNL     1     -17.317  35.198  25.749  1.00  0.00    +0.087 C 
ATOM     13  C21 UNL     1     -19.206  36.540  26.521  1.00  0.00    +0.087 C 
ATOM     14  C6  UNL     1     -17.408  36.120  24.528  1.00  0.00    +0.041 C 
ATOM     15  C20 UNL     1     -18.651  37.835  25.922  1.00  0.00    +0.041 C 
BRANCH  11  16
ATOM     16  C4  UNL     1     -18.603  34.517  27.722  1.00  0.00    +0.185 C 
BRANCH  16  17
ATOM     17  C3  UNL     1     -19.076  34.923  29.136  1.00  0.00    +0.236 C 
ATOM     18  N1  UNL     1     -20.426  34.686  29.428  1.00  0.00    -0.348 N 
ATOM     19  O1  UNL     1     -18.324  35.429  29.971  1.00  0.00    -0.273 OA
ATOM     20  C1  UNL     1     -21.327  33.929  28.573  1.00  0.00    +0.146 C 
ATOM     21  C2  UNL     1     -20.886  34.925  30.787  1.00  0.00    +0.146 C 
ENDBRANCH  16  17
ENDBRANCH  11  16
ENDBRANCH   1  10
BRANCH   3  22
ATOM     22  C10 UNL     1     -19.166  40.195  21.088  1.00  0.00    -0.012 A 
ATOM     23  C11 UNL     1     -19.317  39.547  19.854  1.00  0.00    +0.009 A 
ATOM     24  C15 UNL     1     -19.926  41.338  21.365  1.00  0.00    +0.055 A 
ATOM     25  C12 UNL     1     -20.224  40.035  18.909  1.00  0.00    +0.004 A 
ATOM     26  C14 UNL     1     -20.829  41.811  20.417  1.00  0.00    +0.116 A 
ATOM     27  C13 UNL     1     -20.982  41.170  19.193  1.00  0.00    +0.046 A 
BRANCH  26  28
ATOM     28  O2  UNL     1     -21.594  42.914  20.656  1.00  0.00    -0.508 OA
ATOM     29  H18 UNL     1     -21.269  43.642  20.100  1.00  0.00    +0.293 HD
ENDBRANCH  26  28
ENDBRANCH   3  22
BRANCH   5  30
ATOM     30  N4  UNL     1     -16.073  41.527  20.505  1.00  0.00    -0.383 N 
ATOM     31  H20 UNL     1     -15.319  41.449  19.832  1.00  0.00    +0.158 HD
ATOM     32  H21 UNL     1     -16.322  42.471  20.776  1.00  0.00    +0.158 HD
ENDBRANCH   5  30
TORSDOF 6
ENDMDL
