MODEL 1
REMARK VINA RESULT:     0.000      0.000      0.000
REMARK INTER + INTRA:          -1.152
REMARK INTER:                   0.000
REMARK INTRA:                  -1.152
REMARK UNBOUND:                -1.152
REMARK SMILES Nc1cc2ncnc(NCc3ccccc3C(F)(F)F)c2cn1
REMARK SMILES IDX 9 1 8 3 2 4 3 5 23 6 4 7 22 8 5 9 21 10 6 11 7 12 1 13 10 16
REMARK SMILES IDX 11 17 12 18 16 19 13 20 15 21 14 22 17 23 18 24 19 25 20 26
REMARK H PARENT 9 2 1 14 1 15
ROOT
ATOM      1  N4  UNL     1      -5.917  31.627  23.878  1.00  0.00    -0.365 N 
ATOM      2  H5  UNL     1      -5.235  30.891  23.733  1.00  0.00    +0.162 HD
ENDROOT
BRANCH   1   3
ATOM      3  C5  UNL     1      -6.218  31.721  25.251  1.00  0.00    +0.139 A 
ATOM      4  C1  UNL     1      -5.736  35.276  27.345  1.00  0.00    +0.125 A 
ATOM      5  C2  UNL     1      -6.201  34.141  27.987  1.00  0.00    +0.075 A 
ATOM      6  N5  UNL     1      -5.447  35.300  26.038  1.00  0.00    -0.239 NA
ATOM      7  C3  UNL     1      -6.362  32.960  27.282  1.00  0.00    +0.081 A 
ATOM      8  C15 UNL     1      -5.616  34.146  25.355  1.00  0.00    +0.127 A 
ATOM      9  N2  UNL     1      -6.814  31.877  27.923  1.00  0.00    -0.236 NA
ATOM     10  C14 UNL     1      -6.052  32.944  25.924  1.00  0.00    +0.061 A 
ATOM     11  C4  UNL     1      -6.971  30.769  27.188  1.00  0.00    +0.224 A 
ATOM     12  N3  UNL     1      -6.699  30.642  25.884  1.00  0.00    -0.219 NA
BRANCH   4  13
ATOM     13  N1  UNL     1      -5.592  36.476  28.034  1.00  0.00    -0.384 N 
ATOM     14  H1  UNL     1      -5.894  36.316  28.991  1.00  0.00    +0.158 HD
ATOM     15  H2  UNL     1      -6.103  37.233  27.595  1.00  0.00    +0.158 HD
ENDBRANCH   4  13
ENDBRANCH   1   3
BRANCH   1  16
ATOM     16  C6  UNL     1      -7.054  31.510  22.961  1.00  0.00    +0.151 C 
BRANCH  16  17
ATOM     17  C7  UNL     1      -7.605  32.863  22.534  1.00  0.00    -0.017 A 
ATOM     18  C8  UNL     1      -6.794  33.709  21.747  1.00  0.00    +0.006 A 
ATOM     19  C12 UNL     1      -8.883  33.328  22.931  1.00  0.00    +0.060 A 
ATOM     20  C9  UNL     1      -7.250  34.953  21.309  1.00  0.00    +0.000 A 
ATOM     21  C11 UNL     1      -9.328  34.583  22.464  1.00  0.00    +0.013 A 
ATOM     22  C10 UNL     1      -8.522  35.385  21.658  1.00  0.00    +0.001 A 
BRANCH  19  23
ATOM     23  C13 UNL     1      -9.800  32.548  23.853  1.00  0.00    +0.416 C 
ATOM     24  F1  UNL     1      -9.319  32.445  25.124  1.00  0.00    -0.166 F 
ATOM     25  F2  UNL     1     -10.057  31.282  23.431  1.00  0.00    -0.166 F 
ATOM     26  F3  UNL     1     -11.028  33.133  23.994  1.00  0.00    -0.166 F 
ENDBRANCH  19  23
ENDBRANCH  16  17
ENDBRANCH   1  16
TORSDOF 5
ENDMDL
