MODEL 1
REMARK VINA RESULT:     0.000      0.000      0.000
REMARK INTER + INTRA:          -1.155
REMARK INTER:                   0.000
REMARK INTRA:                  -1.155
REMARK UNBOUND:                -1.155
REMARK SMILES COC(=O)CN1CCC(n2cc(-c3cccc(OC)c3)c3c(N)ncnc32)CC1
REMARK SMILES IDX 6 1 7 2 8 3 9 4 28 5 29 6 5 7 3 8 4 9 2 10 1 11 10 12 11 13
REMARK SMILES IDX 27 14 12 15 21 16 26 17 22 18 25 19 24 20 13 21 14 22 20 23
REMARK SMILES IDX 15 24 17 25 16 26 18 27 19 28 23 29
REMARK H PARENT 23 30 23 31
ROOT
ATOM      1  N1  UNL     1     -16.803  37.675  23.395  1.00  0.00    -0.293 NA
ATOM      2  C4  UNL     1     -15.628  37.022  23.972  1.00  0.00    +0.087 C 
ATOM      3  C5  UNL     1     -15.416  35.655  23.312  1.00  0.00    +0.041 C 
ATOM      4  C6  UNL     1     -16.740  34.934  23.007  1.00  0.00    +0.091 C 
ATOM      5  C20 UNL     1     -17.871  35.452  23.899  1.00  0.00    +0.041 C 
ATOM      6  C21 UNL     1     -18.047  36.965  23.732  1.00  0.00    +0.087 C 
ENDROOT
BRANCH   1   7
ATOM      7  C3  UNL     1     -16.906  39.100  23.776  1.00  0.00    +0.207 C 
BRANCH   7   8
ATOM      8  C2  UNL     1     -15.762  39.928  23.205  1.00  0.00    +0.319 C 
ATOM      9  O2  UNL     1     -14.957  40.549  23.891  1.00  0.00    -0.251 OA
BRANCH   8  10
ATOM     10  O1  UNL     1     -15.760  39.881  21.842  1.00  0.00    -0.468 OA
ATOM     11  C1  UNL     1     -14.489  39.570  21.275  1.00  0.00    +0.282 C 
ENDBRANCH   8  10
ENDBRANCH   7   8
ENDBRANCH   1   7
BRANCH   4  12
ATOM     12  N2  UNL     1     -16.602  33.480  23.077  1.00  0.00    -0.329 N 
ATOM     13  C7  UNL     1     -16.611  32.733  24.229  1.00  0.00    +0.097 A 
ATOM     14  C19 UNL     1     -16.441  32.649  21.994  1.00  0.00    +0.146 A 
ATOM     15  C8  UNL     1     -16.444  31.404  23.884  1.00  0.00    +0.013 A 
ATOM     16  C16 UNL     1     -16.338  31.343  22.459  1.00  0.00    +0.069 A 
ATOM     17  N5  UNL     1     -16.393  33.045  20.710  1.00  0.00    -0.218 NA
ATOM     18  C17 UNL     1     -16.178  30.345  21.482  1.00  0.00    +0.136 A 
ATOM     19  C18 UNL     1     -16.231  32.008  19.876  1.00  0.00    +0.226 A 
ATOM     20  N4  UNL     1     -16.131  30.703  20.183  1.00  0.00    -0.219 NA
BRANCH  15  21
ATOM     21  C9  UNL     1     -16.382  30.349  24.881  1.00  0.00    -0.012 A 
ATOM     22  C10 UNL     1     -17.525  29.611  25.201  1.00  0.00    +0.009 A 
ATOM     23  C15 UNL     1     -15.177  30.063  25.532  1.00  0.00    +0.055 A 
ATOM     24  C11 UNL     1     -17.459  28.597  26.157  1.00  0.00    +0.004 A 
ATOM     25  C13 UNL     1     -15.105  29.049  26.491  1.00  0.00    +0.119 A 
ATOM     26  C12 UNL     1     -16.251  28.316  26.801  1.00  0.00    +0.046 A 
BRANCH  25  27
ATOM     27  O3  UNL     1     -13.867  28.875  27.046  1.00  0.00    -0.497 OA
ATOM     28  C14 UNL     1     -12.912  29.906  26.831  1.00  0.00    +0.278 C 
ENDBRANCH  25  27
ENDBRANCH  15  21
BRANCH  18  29
ATOM     29  N3  UNL     1     -16.086  28.989  21.755  1.00  0.00    -0.383 N 
ATOM     30  H19 UNL     1     -15.152  28.603  21.707  1.00  0.00    +0.158 HD
ATOM     31  H20 UNL     1     -16.642  28.740  22.562  1.00  0.00    +0.158 HD
ENDBRANCH  18  29
ENDBRANCH   4  12
TORSDOF 7
ENDMDL
