REMARK SMILES Nc1cc2ncnc(NCc3ccccc3C(F)(F)F)c2cn1
REMARK SMILES IDX 9 1 8 3 2 4 3 5 23 6 4 7 22 8 5 9 21 10 6 11 7 12 1 13 10 16
REMARK SMILES IDX 11 17 12 18 16 19 13 20 15 21 14 22 17 23 18 24 19 25 20 26
REMARK H PARENT 9 2 1 14 1 15
ROOT
ATOM      1  N4  UNL     1       0.074  -1.452  -0.455  1.00  0.00    -0.365 N 
ATOM      2  H5  UNL     1       0.105  -1.768   0.508  1.00  0.00    +0.162 HD
ENDROOT
BRANCH   1   3
ATOM      3  C5  UNL     1       0.810  -0.258  -0.579  1.00  0.00    +0.139 A 
ATOM      4  C1  UNL     1       4.706   0.053   0.829  1.00  0.00    +0.125 A 
ATOM      5  C2  UNL     1       4.092   1.134   0.220  1.00  0.00    +0.075 A 
ATOM      6  N5  UNL     1       4.104  -1.134   0.973  1.00  0.00    -0.239 NA
ATOM      7  C3  UNL     1       2.794   1.022  -0.250  1.00  0.00    +0.081 A 
ATOM      8  C15 UNL     1       2.840  -1.238   0.503  1.00  0.00    +0.127 A 
ATOM      9  N2  UNL     1       2.221   2.079  -0.836  1.00  0.00    -0.236 NA
ATOM     10  C14 UNL     1       2.130  -0.194  -0.099  1.00  0.00    +0.061 A 
ATOM     11  C4  UNL     1       0.974   1.908  -1.291  1.00  0.00    +0.224 A 
ATOM     12  N3  UNL     1       0.245   0.790  -1.194  1.00  0.00    -0.219 NA
BRANCH   4  13
ATOM     13  N1  UNL     1       6.017   0.142   1.285  1.00  0.00    -0.384 N 
ATOM     14  H1  UNL     1       6.246  -0.744   1.728  1.00  0.00    +0.158 HD
ATOM     15  H2  UNL     1       6.151   0.927   1.912  1.00  0.00    +0.158 HD
ENDBRANCH   4  13
ENDBRANCH   1   3
BRANCH   1  16
ATOM     16  C6  UNL     1      -1.292  -1.443  -0.985  1.00  0.00    +0.151 C 
BRANCH  16  17
ATOM     17  C7  UNL     1      -2.290  -0.813  -0.024  1.00  0.00    -0.017 A 
ATOM     18  C8  UNL     1      -2.370  -1.310   1.295  1.00  0.00    +0.006 A 
ATOM     19  C12 UNL     1      -3.175   0.224  -0.411  1.00  0.00    +0.060 A 
ATOM     20  C9  UNL     1      -3.251  -0.762   2.227  1.00  0.00    +0.000 A 
ATOM     21  C11 UNL     1      -4.047   0.772   0.554  1.00  0.00    +0.013 A 
ATOM     22  C10 UNL     1      -4.082   0.287   1.860  1.00  0.00    +0.001 A 
BRANCH  19  23
ATOM     23  C13 UNL     1      -3.246   0.770  -1.824  1.00  0.00    +0.416 C 
ATOM     24  F1  UNL     1      -3.222  -0.205  -2.776  1.00  0.00    -0.166 F 
ATOM     25  F2  UNL     1      -2.244   1.636  -2.129  1.00  0.00    -0.166 F 
ATOM     26  F3  UNL     1      -4.401   1.461  -2.064  1.00  0.00    -0.166 F 
ENDBRANCH  19  23
ENDBRANCH  16  17
ENDBRANCH   1  16
TORSDOF 5
