REMARK SMILES CN(C)c1cc2c(Nc3cccc(Br)c3)ncnc2cn1
REMARK SMILES IDX 4 1 5 2 6 3 7 4 16 5 17 6 18 7 19 8 20 9 21 10 2 11 1 12
REMARK SMILES IDX 3 13 8 14 9 16 10 17 15 18 11 19 13 20 12 21 14 22
REMARK H PARENT 8 15
ROOT
ATOM      1  C3  UNL     1      -2.814   0.331  -0.294  1.00  0.00    +0.128 A 
ATOM      2  C4  UNL     1      -1.439   0.113  -0.225  1.00  0.00    +0.061 A 
ATOM      3  C5  UNL     1      -0.669   0.655   0.836  1.00  0.00    +0.048 A 
ATOM      4  C6  UNL     1       0.719   0.489   1.005  1.00  0.00    +0.141 A 
ATOM      5  N3  UNL     1       1.384   1.065   2.024  1.00  0.00    -0.219 NA
ATOM      6  C13 UNL     1       0.667   1.791   2.886  1.00  0.00    +0.224 A 
ATOM      7  N4  UNL     1      -0.650   2.000   2.831  1.00  0.00    -0.235 NA
ATOM      8  C14 UNL     1      -1.300   1.434   1.802  1.00  0.00    +0.094 A 
ATOM      9  C15 UNL     1      -2.663   1.603   1.641  1.00  0.00    +0.142 A 
ATOM     10  N5  UNL     1      -3.423   1.083   0.640  1.00  0.00    -0.237 NA
ENDROOT
BRANCH   1  11
ATOM     11  N1  UNL     1      -3.555  -0.206  -1.364  1.00  0.00    -0.363 N 
ATOM     12  C1  UNL     1      -3.514  -1.667  -1.408  1.00  0.00    +0.144 C 
ATOM     13  C2  UNL     1      -4.906   0.352  -1.455  1.00  0.00    +0.144 C 
ENDBRANCH   1  11
BRANCH   4  14
ATOM     14  N2  UNL     1       1.429  -0.324   0.080  1.00  0.00    -0.340 N 
ATOM     15  H8  UNL     1       0.977  -1.231   0.027  1.00  0.00    +0.168 HD
BRANCH  14  16
ATOM     16  C7  UNL     1       2.826  -0.430  -0.109  1.00  0.00    +0.041 A 
ATOM     17  C8  UNL     1       3.706   0.632   0.139  1.00  0.00    +0.026 A 
ATOM     18  C12 UNL     1       3.349  -1.596  -0.688  1.00  0.00    +0.041 A 
ATOM     19  C9  UNL     1       5.075   0.515  -0.123  1.00  0.00    +0.003 A 
ATOM     20  C11 UNL     1       4.716  -1.712  -0.949  1.00  0.00    +0.020 A 
ATOM     21  C10 UNL     1       5.584  -0.662  -0.663  1.00  0.00    +0.016 A 
ATOM     22 BR1  UNL     1       5.393  -3.307  -1.707  1.00  0.00    -0.051 Br
ENDBRANCH  14  16
ENDBRANCH   4  14
TORSDOF 3
