REMARK SMILES CN(C)C(=O)CN1CCC(n2cc(-c3cccc(O)c3)c3c(N)ncnc32)CC1
REMARK SMILES IDX 11 1 12 2 13 3 21 4 22 5 24 6 25 7 26 8 27 9 10 10 7 11 8 12
REMARK SMILES IDX 29 13 9 14 28 15 6 16 4 17 2 18 5 19 1 20 3 21 14 22 15 23
REMARK SMILES IDX 20 24 16 25 18 26 17 27 19 28 23 30
REMARK H PARENT 19 29 23 31 23 32
ROOT
ATOM      1  N3  UNL     1      -1.153  -0.722  -0.374  1.00  0.00    -0.329 N 
ATOM      2  C8  UNL     1      -1.910   0.416  -0.227  1.00  0.00    +0.097 A 
ATOM      3  C9  UNL     1      -3.245   0.059  -0.275  1.00  0.00    +0.013 A 
ATOM      4  C16 UNL     1      -3.300  -1.357  -0.472  1.00  0.00    +0.069 A 
ATOM      5  C17 UNL     1      -4.297  -2.336  -0.624  1.00  0.00    +0.136 A 
ATOM      6  N5  UNL     1      -3.934  -3.622  -0.792  1.00  0.00    -0.219 NA
ATOM      7  C18 UNL     1      -2.621  -3.918  -0.809  1.00  0.00    +0.226 A 
ATOM      8  N6  UNL     1      -1.583  -3.078  -0.689  1.00  0.00    -0.218 NA
ATOM      9  C19 UNL     1      -1.984  -1.806  -0.523  1.00  0.00    +0.146 A 
ENDROOT
BRANCH   1  10
ATOM     10  C7  UNL     1       0.308  -0.776  -0.364  1.00  0.00    +0.091 C 
ATOM     11  N2  UNL     1       3.046  -0.128  -0.354  1.00  0.00    -0.294 NA
ATOM     12  C5  UNL     1       2.418  -0.384   0.954  1.00  0.00    +0.087 C 
ATOM     13  C21 UNL     1       2.211   0.689  -1.230  1.00  0.00    +0.087 C 
ATOM     14  C6  UNL     1       0.891  -0.252   0.950  1.00  0.00    +0.041 C 
ATOM     15  C20 UNL     1       0.920  -0.056  -1.578  1.00  0.00    +0.041 C 
BRANCH  11  16
ATOM     16  C4  UNL     1       4.405   0.446  -0.217  1.00  0.00    +0.185 C 
BRANCH  16  17
ATOM     17  C3  UNL     1       5.415  -0.493   0.481  1.00  0.00    +0.236 C 
ATOM     18  N1  UNL     1       6.696   0.030   0.700  1.00  0.00    -0.348 N 
ATOM     19  O1  UNL     1       5.129  -1.640   0.829  1.00  0.00    -0.273 OA
ATOM     20  C1  UNL     1       7.057   1.424   0.491  1.00  0.00    +0.146 C 
ATOM     21  C2  UNL     1       7.639  -0.764   1.472  1.00  0.00    +0.146 C 
ENDBRANCH  16  17
ENDBRANCH  11  16
ENDBRANCH   1  10
BRANCH   3  22
ATOM     22  C10 UNL     1      -4.315   1.028  -0.112  1.00  0.00    -0.012 A 
ATOM     23  C11 UNL     1      -4.377   2.163  -0.932  1.00  0.00    +0.009 A 
ATOM     24  C15 UNL     1      -5.294   0.831   0.870  1.00  0.00    +0.055 A 
ATOM     25  C12 UNL     1      -5.412   3.089  -0.775  1.00  0.00    +0.004 A 
ATOM     26  C14 UNL     1      -6.322   1.759   1.013  1.00  0.00    +0.116 A 
ATOM     27  C13 UNL     1      -6.387   2.885   0.200  1.00  0.00    +0.046 A 
BRANCH  26  28
ATOM     28  O2  UNL     1      -7.299   1.595   1.950  1.00  0.00    -0.508 OA
ATOM     29  H18 UNL     1      -7.140   0.759   2.419  1.00  0.00    +0.293 HD
ENDBRANCH  26  28
ENDBRANCH   3  22
BRANCH   5  30
ATOM     30  N4  UNL     1      -5.661  -2.069  -0.639  1.00  0.00    -0.383 N 
ATOM     31  H20 UNL     1      -6.159  -2.849  -1.052  1.00  0.00    +0.158 HD
ATOM     32  H21 UNL     1      -5.894  -1.155  -1.009  1.00  0.00    +0.158 HD
ENDBRANCH   5  30
TORSDOF 6
