REMARK SMILES Nc1cc2ncnc(NCc3ccc([N+](=O)[O-])cc3)c2cn1
REMARK SMILES IDX 9 1 8 3 2 4 3 5 22 6 4 7 21 8 5 9 20 10 6 11 7 12 1 13 10 16
REMARK SMILES IDX 11 17 12 18 19 19 13 20 18 21 14 22 15 23 16 24 17 25
REMARK H PARENT 9 2 1 14 1 15
ROOT
ATOM      1  N4  UNL     1       0.015   1.735   0.234  1.00  0.00    -0.365 N 
ATOM      2  H5  UNL     1       0.494   2.584   0.525  1.00  0.00    +0.162 HD
ENDROOT
BRANCH   1   3
ATOM      3  C5  UNL     1       0.932   0.944  -0.491  1.00  0.00    +0.139 A 
ATOM      4  C1  UNL     1       4.435  -0.414   1.280  1.00  0.00    +0.125 A 
ATOM      5  C2  UNL     1       4.166  -0.698  -0.049  1.00  0.00    +0.075 A 
ATOM      6  N6  UNL     1       3.604   0.298   2.050  1.00  0.00    -0.239 NA
ATOM      7  C3  UNL     1       2.992  -0.249  -0.631  1.00  0.00    +0.081 A 
ATOM      8  C14 UNL     1       2.459   0.731   1.476  1.00  0.00    +0.127 A 
ATOM      9  N2  UNL     1       2.742  -0.547  -1.911  1.00  0.00    -0.236 NA
ATOM     10  C13 UNL     1       2.106   0.500   0.142  1.00  0.00    +0.061 A 
ATOM     11  C4  UNL     1       1.588  -0.095  -2.417  1.00  0.00    +0.224 A 
ATOM     12  N3  UNL     1       0.672   0.639  -1.773  1.00  0.00    -0.219 NA
BRANCH   4  13
ATOM     13  N1  UNL     1       5.623  -0.832   1.871  1.00  0.00    -0.384 N 
ATOM     14  H1  UNL     1       5.587  -0.557   2.849  1.00  0.00    +0.158 HD
ATOM     15  H2  UNL     1       5.770  -1.829   1.764  1.00  0.00    +0.158 HD
ENDBRANCH   4  13
ENDBRANCH   1   3
BRANCH   1  16
ATOM     16  C6  UNL     1      -1.241   2.054  -0.439  1.00  0.00    +0.150 C 
BRANCH  16  17
ATOM     17  C7  UNL     1      -2.232   0.917  -0.308  1.00  0.00    -0.028 A 
ATOM     18  C8  UNL     1      -2.655   0.207  -1.442  1.00  0.00    +0.012 A 
ATOM     19  C12 UNL     1      -2.733   0.553   0.953  1.00  0.00    +0.012 A 
ATOM     20  C9  UNL     1      -3.566  -0.846  -1.325  1.00  0.00    +0.086 A 
ATOM     21  C11 UNL     1      -3.644  -0.498   1.082  1.00  0.00    +0.086 A 
ATOM     22  C10 UNL     1      -4.058  -1.194  -0.060  1.00  0.00    +0.269 A 
BRANCH  22  23
ATOM     23  N5  UNL     1      -5.013  -2.301   0.069  1.00  0.00    +0.062 N 
ATOM     24  O1  UNL     1      -5.428  -2.576   1.204  1.00  0.00    -0.258 OA
ATOM     25  O2  UNL     1      -5.353  -2.894  -0.965  1.00  0.00    -0.258 OA
ENDBRANCH  22  23
ENDBRANCH  16  17
ENDBRANCH   1  16
TORSDOF 5
