REMARK SMILES COC(=O)CN1CCC(n2cc(-c3cccc(OC)c3)c3c(N)ncnc32)CC1
REMARK SMILES IDX 6 1 7 2 8 3 9 4 28 5 29 6 5 7 3 8 4 9 2 10 1 11 10 12 11 13
REMARK SMILES IDX 27 14 12 15 21 16 26 17 22 18 25 19 24 20 13 21 14 22 20 23
REMARK SMILES IDX 15 24 17 25 16 26 18 27 19 28 23 29
REMARK H PARENT 23 30 23 31
ROOT
ATOM      1  N1  UNL     1       3.650  -1.887  -0.942  1.00  0.00    -0.293 NA
ATOM      2  C4  UNL     1       3.025  -0.756  -1.629  1.00  0.00    +0.087 C 
ATOM      3  C5  UNL     1       2.134   0.018  -0.652  1.00  0.00    +0.041 C 
ATOM      4  C6  UNL     1       1.398  -0.904   0.335  1.00  0.00    +0.091 C 
ATOM      5  C20 UNL     1       1.279  -2.326  -0.219  1.00  0.00    +0.041 C 
ATOM      6  C21 UNL     1       2.662  -2.902  -0.543  1.00  0.00    +0.087 C 
ENDROOT
BRANCH   1   7
ATOM      7  C3  UNL     1       4.732  -2.508  -1.736  1.00  0.00    +0.207 C 
BRANCH   7   8
ATOM      8  C2  UNL     1       5.929  -1.579  -1.895  1.00  0.00    +0.319 C 
ATOM      9  O2  UNL     1       6.234  -1.029  -2.948  1.00  0.00    -0.251 OA
BRANCH   8  10
ATOM     10  O1  UNL     1       6.603  -1.446  -0.717  1.00  0.00    -0.468 OA
ATOM     11  C1  UNL     1       7.715  -0.555  -0.782  1.00  0.00    +0.282 C 
ENDBRANCH   8  10
ENDBRANCH   7   8
ENDBRANCH   1   7
BRANCH   4  12
ATOM     12  N2  UNL     1       0.103  -0.357   0.736  1.00  0.00    -0.329 N 
ATOM     13  C7  UNL     1      -0.986  -0.200  -0.087  1.00  0.00    +0.097 A 
ATOM     14  C19 UNL     1      -0.212   0.082   2.000  1.00  0.00    +0.146 A 
ATOM     15  C8  UNL     1      -2.012   0.357   0.655  1.00  0.00    +0.013 A 
ATOM     16  C16 UNL     1      -1.526   0.536   1.989  1.00  0.00    +0.069 A 
ATOM     17  N5  UNL     1       0.618   0.068   3.057  1.00  0.00    -0.218 NA
ATOM     18  C17 UNL     1      -2.029   1.017   3.210  1.00  0.00    +0.136 A 
ATOM     19  C18 UNL     1       0.029   0.556   4.158  1.00  0.00    +0.226 A 
ATOM     20  N4  UNL     1      -1.228   1.014   4.294  1.00  0.00    -0.219 NA
BRANCH  15  21
ATOM     21  C9  UNL     1      -3.302   0.677   0.070  1.00  0.00    -0.012 A 
ATOM     22  C10 UNL     1      -4.061  -0.317  -0.555  1.00  0.00    +0.009 A 
ATOM     23  C15 UNL     1      -3.797   1.985   0.125  1.00  0.00    +0.055 A 
ATOM     24  C11 UNL     1      -5.301  -0.004  -1.112  1.00  0.00    +0.004 A 
ATOM     25  C13 UNL     1      -5.039   2.304  -0.432  1.00  0.00    +0.119 A 
ATOM     26  C12 UNL     1      -5.790   1.304  -1.051  1.00  0.00    +0.046 A 
BRANCH  25  27
ATOM     27  O3  UNL     1      -5.401   3.617  -0.305  1.00  0.00    -0.497 OA
ATOM     28  C14 UNL     1      -6.651   3.999  -0.865  1.00  0.00    +0.278 C 
ENDBRANCH  25  27
ENDBRANCH  15  21
BRANCH  18  29
ATOM     29  N3  UNL     1      -3.321   1.484   3.395  1.00  0.00    -0.383 N 
ATOM     30  H19 UNL     1      -4.010   1.111   2.755  1.00  0.00    +0.158 HD
ATOM     31  H20 UNL     1      -3.568   1.497   4.376  1.00  0.00    +0.158 HD
ENDBRANCH  18  29
ENDBRANCH   4  12
TORSDOF 7
