MODEL 1
REMARK VINA RESULT:     0.000      0.000      0.000
REMARK INTER + INTRA:          -0.671
REMARK INTER:                   0.000
REMARK INTRA:                  -0.671
REMARK UNBOUND:                -0.671
REMARK SMILES CN(C)c1cc2c(Nc3cccc(Br)c3)ncnc2cn1
REMARK SMILES IDX 4 1 5 2 6 3 7 4 16 5 17 6 18 7 19 8 20 9 21 10 2 11 1 12
REMARK SMILES IDX 3 13 8 14 9 16 10 17 15 18 11 19 13 20 12 21 14 22
REMARK H PARENT 8 15
ROOT
ATOM      1  C3  UNL     1     -18.415  34.394  25.406  1.00  0.00    +0.128 A 
ATOM      2  C4  UNL     1     -17.722  35.602  25.476  1.00  0.00    +0.061 A 
ATOM      3  C5  UNL     1     -17.045  36.118  24.341  1.00  0.00    +0.048 A 
ATOM      4  C6  UNL     1     -16.325  37.328  24.301  1.00  0.00    +0.141 A 
ATOM      5  N3  UNL     1     -15.681  37.734  23.191  1.00  0.00    -0.219 NA
ATOM      6  C13 UNL     1     -15.767  36.947  22.115  1.00  0.00    +0.224 A 
ATOM      7  N4  UNL     1     -16.433  35.793  22.037  1.00  0.00    -0.235 NA
ATOM      8  C14 UNL     1     -17.059  35.391  23.155  1.00  0.00    +0.094 A 
ATOM      9  C15 UNL     1     -17.762  34.201  23.188  1.00  0.00    +0.142 A 
ATOM     10  N5  UNL     1     -18.428  33.692  24.259  1.00  0.00    -0.237 NA
ENDROOT
BRANCH   1  11
ATOM     11  N1  UNL     1     -19.068  33.895  26.550  1.00  0.00    -0.363 N 
ATOM     12  C1  UNL     1     -18.814  32.473  26.774  1.00  0.00    +0.144 C 
ATOM     13  C2  UNL     1     -18.855  34.729  27.734  1.00  0.00    +0.144 C 
ENDBRANCH   1  11
BRANCH   4  14
ATOM     14  N2  UNL     1     -16.295  38.146  25.463  1.00  0.00    -0.340 N 
ATOM     15  H8  UNL     1     -16.525  39.098  25.199  1.00  0.00    +0.168 HD
BRANCH  14  16
ATOM     16  C7  UNL     1     -15.380  38.114  26.540  1.00  0.00    +0.041 A 
ATOM     17  C8  UNL     1     -13.991  38.144  26.355  1.00  0.00    +0.026 A 
ATOM     18  C12 UNL     1     -15.866  37.917  27.841  1.00  0.00    +0.041 A 
ATOM     19  C9  UNL     1     -13.113  38.042  27.439  1.00  0.00    +0.003 A 
ATOM     20  C11 UNL     1     -14.988  37.816  28.923  1.00  0.00    +0.020 A 
ATOM     21  C10 UNL     1     -13.611  37.884  28.728  1.00  0.00    +0.016 A 
ATOM     22 BR1  UNL     1     -15.676  37.575  30.668  1.00  0.00    -0.051 Br
ENDBRANCH  14  16
ENDBRANCH   4  14
TORSDOF 3
ENDMDL
